 Gaussian 16, Revision C.01,
 Gaussian 16:  ES64L-G16RevC.01  3-Jul-2019

 -------------------------------------------
 #p b3lyp/6-311++G(3df,3pd) opt freq=noraman
 -------------------------------------------

 -----
 title
 -----
 Symbolic Z-matrix:
 Charge =  0 Multiplicity = 1

 SCF Done:  E(RB3LYP) =  -168.705044921     A.U. after   10 cycles
 SCF Done:  E(RB3LYP) =  -168.705840860     A.U. after    9 cycles
 SCF Done:  E(RB3LYP) =  -168.706264799     A.U. after    9 cycles
 SCF Done:  E(RB3LYP) =  -168.706267421     A.U. after    8 cycles
 Optimization completed.
    -- Stationary point found.
 Normal termination of Gaussian 16 at Tue Jan 26 00:25:24 2021.

 ----------------------------------------------------------------------
 #P Geom=AllCheck Guess=TCheck SCRF=Check GenChk RB3LYP/6-311++G(3df,3p
 d) Freq
 ----------------------------------------------------------------------

 Structure from the checkpoint file:  "file_name.chk"
 -----
 title
 -----
 Charge =  0 Multiplicity = 1

                         Standard orientation:
 ---------------------------------------------------------------------
 Center     Atomic      Atomic             Coordinates (Angstroms)
 Number     Number       Type             X           Y           Z
 ---------------------------------------------------------------------
      1          8           0       -0.128976   -1.108408   -0.000000
      2          6           0       -0.000000    0.180517    0.000000
      3          7           0        0.042576    1.332736    0.000000
      4          1           0        0.733776   -1.544989    0.000000
 ---------------------------------------------------------------------

 SCF Done:  E(RB3LYP) =  -168.706267421     A.U. after    1 cycles

 The electronic state is 1-A'.
 Alpha  occ. eigenvalues --  -19.24631 -14.32174 -10.27682  -1.15802  -0.92119
 Alpha  occ. eigenvalues --   -0.68683  -0.52257  -0.48182  -0.38337  -0.34701
 Alpha  occ. eigenvalues --   -0.32476
 Alpha virt. eigenvalues --   -0.04954   0.02085   0.03884   0.04944   0.05076
 Alpha virt. eigenvalues --    0.06082   0.07164   0.11076   0.13604   0.15328
 Alpha virt. eigenvalues --    0.15569   0.18679   0.20629   0.23005   0.23400

 Mulliken charges:
               1
     1  O   -0.580968
     2  C    1.000790
     3  N   -0.879234
     4  H    0.459412
 Sum of Mulliken charges =   0.00000

 Dipole moment (field-independent basis, Debye):
    X=              1.3997    Y=             -3.7166    Z=              0.0000  Tot=              3.9714
 Quadrupole moment (field-independent basis, Debye-Ang):
   XX=            -15.4165   YY=            -18.7418   ZZ=            -17.0230
   XY=             -2.9893   XZ=             -0.0000   YZ=             -0.0000

  Exact polarizability:      17.581      -0.473      32.033      -0.000       0.000      16.707
 Approx polarizability:      24.271      -0.037      53.902       0.000       0.000      22.105

                      1                      2                      3
                     A'                     A"                     A'
 Frequencies --    461.2961               518.1513              1101.0366
 Red. masses --      5.5343                10.6919                13.4754
 Frc consts  --      0.6939                 1.6913                 9.6249
 IR Inten    --     13.8631                 3.2304                76.1300

                      4                      5                      6
                     A'                     A'                     A'
 Frequencies --   1242.4591              2375.2451              3762.6928
 Red. masses --      1.2036                12.1379                 1.0659
 Frc consts  --      1.0947                40.3471                 8.8911
 IR Inten    --     90.3671               134.3753               151.1885

 - Thermochemistry -
 -------------------
 Temperature   298.150 Kelvin.  Pressure   1.00000 Atm.
 Atom     1 has atomic number  8 and mass  15.99491

 Molecular mass:    43.00581 amu.
 Principal axes and moments of inertia in atomic units:
                           1         2         3
     Eigenvalues --     2.63842 169.08012 171.71854
           X            0.04219   0.99911  -0.00000
           Y            0.99911  -0.04219  -0.00000
           Z            0.00000   0.00000   1.00000
 This molecule is an asymmetric top.
 Rotational symmetry number  1.
 Rotational temperatures (Kelvin)     32.82797     0.51227     0.50439
 Rotational constants (GHZ):         684.02393    10.67388    10.50988
 Zero-point vibrational energy      56588.6 (Joules/Mol)
                                   13.52501 (Kcal/Mol)
 Warning -- explicit consideration of   2 degrees of freedom as
           vibrations may cause significant error
 Vibrational temperatures:    663.70   745.50  1584.15  1787.62  3417.45
          (Kelvin)           5413.68

 Zero-point correction=                           0.021553 (Hartree/Particle)
 Thermal correction to Energy=                    0.024890
 Thermal correction to Enthalpy=                  0.025835
 Thermal correction to Gibbs Free Energy=        -0.001558
 Sum of electronic and zero-point Energies=           -168.684714
 Sum of electronic and thermal Energies=              -168.681377
 Sum of electronic and thermal Enthalpies=            -168.680433
 Sum of electronic and thermal Free Energies=         -168.707826

                     E (Thermal)             CV                S
                      KCal/Mol        Cal/Mol-Kelvin    Cal/Mol-Kelvin
 Total                   15.619              8.968             57.654
 Electronic               0.000              0.000              0.000
 Translational            0.889              2.981             37.203
 Rotational               0.889              2.981             18.977
 Vibrational             13.842              3.006              1.474
 Vibration     1          0.819              1.336              0.762
 Vibration     2          0.873              1.210              0.614

 Optimization completed.
    -- Stationary point found.
 Normal termination of Gaussian 16 at Tue Jan 26 00:25:36 2021.
