 Gaussian 16, Revision C.01,
 Gaussian 16:  ES64L-G16RevC.01  3-Jul-2019

 -------------------------------------------
 #p b3lyp/6-311++G(3df,3pd) opt freq=noraman
 -------------------------------------------

 -----
 title
 -----
 Symbolic Z-matrix:
 Charge =  0 Multiplicity = 1

 SCF Done:  E(RB3LYP) =  -1.17917257843     A.U. after    5 cycles
 SCF Done:  E(RB3LYP) =  -1.18003157052     A.U. after    5 cycles
 SCF Done:  E(RB3LYP) =  -1.18003406448     A.U. after    4 cycles
 Optimization completed.
    -- Stationary point found.
 Normal termination of Gaussian 16 at Tue Jan 26 00:25:18 2021.

 ----------------------------------------------------------------------
 #P Geom=AllCheck Guess=TCheck SCRF=Check GenChk RB3LYP/6-311++G(3df,3p
 d) Freq
 ----------------------------------------------------------------------

 Structure from the checkpoint file:  "file_name.chk"
 -----
 title
 -----
 Charge =  0 Multiplicity = 1

                         Standard orientation:
 ---------------------------------------------------------------------
 Center     Atomic      Atomic             Coordinates (Angstroms)
 Number     Number       Type             X           Y           Z
 ---------------------------------------------------------------------
      1          1           0        0.000000   -0.000000    0.371370
      2          1           0       -0.000000   -0.000000   -0.371370
 ---------------------------------------------------------------------

 SCF Done:  E(RB3LYP) =  -1.18003406448     A.U. after    1 cycles

 The electronic state is 1-SGG.
 Alpha  occ. eigenvalues --   -0.43405
 Alpha virt. eigenvalues --    0.01967   0.03182   0.13550   0.22747   0.22747
 Alpha virt. eigenvalues --    0.33582   0.43520   0.46702   0.46702   0.48725
 Alpha virt. eigenvalues --    0.94367   1.52108   1.52108   1.72413   1.92698

 Mulliken charges:
               1
     1  H   -0.000000
     2  H   -0.000000
 Sum of Mulliken charges =  -0.00000

 Dipole moment (field-independent basis, Debye):
    X=             -0.0000    Y=              0.0000    Z=             -0.0000  Tot=              0.0000
 Quadrupole moment (field-independent basis, Debye-Ang):
   XX=             -2.1119   YY=             -2.1119   ZZ=             -1.5151
   XY=             -0.0000   XZ=              0.0000   YZ=             -0.0000

  Exact polarizability:       4.347      -0.000       4.347       0.000      -0.000       6.809
 Approx polarizability:       4.504      -0.000       4.504       0.000      -0.000       8.081

                      1
                     SGG
 Frequencies --   4410.4060
 Red. masses --      1.0078
 Frc consts  --     11.5503
 IR Inten    --      0.0000

 - Thermochemistry -
 -------------------
 Temperature   298.150 Kelvin.  Pressure   1.00000 Atm.
 Atom     1 has atomic number  1 and mass   1.00783

 Molecular mass:     2.01565 amu.
 Principal axes and moments of inertia in atomic units:
                           1         2         3
     Eigenvalues --     0.00000   0.99272   0.99272
           X            0.00000   0.54293   0.83978
           Y           -0.00000   0.83978  -0.54293
           Z            1.00000  -0.00000  -0.00000
 This molecule is a prolate symmetric top.
 Rotational symmetry number  2.
 Rotational temperature (Kelvin)     87.24918
 Rotational constant (GHZ):        1817.977780
 Zero-point vibrational energy      26380.1 (Joules/Mol)
                                    6.30499 (Kcal/Mol)
 Vibrational temperatures:   6345.59
          (Kelvin)

 Zero-point correction=                           0.010048 (Hartree/Particle)
 Thermal correction to Energy=                    0.012408
 Thermal correction to Enthalpy=                  0.013352
 Thermal correction to Gibbs Free Energy=        -0.001440
 Sum of electronic and zero-point Energies=             -1.169986
 Sum of electronic and thermal Energies=                -1.167626
 Sum of electronic and thermal Enthalpies=              -1.166682
 Sum of electronic and thermal Free Energies=           -1.181474

                     E (Thermal)             CV                S
                      KCal/Mol        Cal/Mol-Kelvin    Cal/Mol-Kelvin
 Total                    7.786              4.968             31.132
 Electronic               0.000              0.000              0.000
 Translational            0.889              2.981             28.080
 Rotational               0.592              1.987              3.052
 Vibrational              6.305              0.000              0.000

 Optimization completed.
    -- Stationary point found.
 Normal termination of Gaussian 16 at Tue Jan 26 00:25:24 2021.
