 Gaussian 16, Revision C.01,
 Gaussian 16:  ES64L-G16RevC.01  3-Jul-2019

 -------------------------------------------
 #p b3lyp/6-311++G(3df,3pd) opt freq=noraman
 -------------------------------------------

 -----
 title
 -----
 Symbolic Z-matrix:
 Charge =  0 Multiplicity = 1

 SCF Done:  E(RB3LYP) =  -169.931115663     A.U. after   10 cycles
 SCF Done:  E(RB3LYP) =  -169.938707219     A.U. after   10 cycles
 SCF Done:  E(RB3LYP) =  -169.939216947     A.U. after    9 cycles
 SCF Done:  E(RB3LYP) =  -169.939245995     A.U. after    8 cycles
 SCF Done:  E(RB3LYP) =  -169.939248925     A.U. after    7 cycles
 Optimization completed.
    -- Stationary point found.
 Normal termination of Gaussian 16 at Tue Jan 26 00:25:39 2021.

 ----------------------------------------------------------------------
 #P Geom=AllCheck Guess=TCheck SCRF=Check GenChk RB3LYP/6-311++G(3df,3p
 d) Freq
 ----------------------------------------------------------------------

 Structure from the checkpoint file:  "file_name.chk"
 -----
 title
 -----
 Charge =  0 Multiplicity = 1

                         Standard orientation:
 ---------------------------------------------------------------------
 Center     Atomic      Atomic             Coordinates (Angstroms)
 Number     Number       Type             X           Y           Z
 ---------------------------------------------------------------------
      1          6           0        0.093887    0.362629   -0.000007
      2          7           0        1.154839   -0.309301    0.000001
      3          8           0       -1.103189   -0.267718    0.000001
      4          1           0        0.024599    1.454549    0.000007
      5          1           0       -1.814498    0.379093    0.000010
      6          1           0        1.968212    0.297436    0.000014
 ---------------------------------------------------------------------

 SCF Done:  E(RB3LYP) =  -169.939248925     A.U. after    1 cycles

 The electronic state is 1-A.
 Alpha  occ. eigenvalues --  -19.17630 -14.29854 -10.27681  -1.09081  -0.90552
 Alpha  occ. eigenvalues --   -0.63932  -0.57419  -0.49107  -0.42846  -0.40618
 Alpha  occ. eigenvalues --   -0.29440  -0.28834
 Alpha virt. eigenvalues --   -0.02560  -0.00308   0.00528   0.02645   0.05555
 Alpha virt. eigenvalues --    0.06770   0.08397   0.09700   0.12720   0.14299
 Alpha virt. eigenvalues --    0.15780   0.15919   0.17089   0.20265   0.20472

 Mulliken charges:
               1
     1  C    0.890356
     2  N   -0.945369
     3  O   -0.705905
     4  H    0.005881
     5  H    0.465342
     6  H    0.289695
 Sum of Mulliken charges =  -0.00000

 Dipole moment (field-independent basis, Debye):
    X=             -1.2174    Y=              3.5363    Z=              0.0000  Tot=              3.7399
 Quadrupole moment (field-independent basis, Debye-Ang):
   XX=            -14.0685   YY=            -18.6681   ZZ=            -19.2113
   XY=              0.1312   XZ=              0.0000   YZ=              0.0000

  Exact polarizability:      37.293      -3.019      27.070       0.000       0.000      19.959
 Approx polarizability:      53.927      -6.632      37.403       0.000      -0.000      26.451

                      1                      2                      3
                      A                      A                      A
 Frequencies --    415.7756               619.8544               824.7082
 Red. masses --      1.1284                 4.0739                 1.3137
 Frc consts  --      0.1149                 0.9222                 0.5264
 IR Inten    --     64.9998                 1.3843                65.4302

                      4                      5                      6
                      A                      A                      A
 Frequencies --   1033.4261              1048.7653              1186.0912
 Red. masses --      1.3321                 1.9002                 1.2902
 Frc consts  --      0.8382                 1.2314                 1.0694
 IR Inten    --      2.2726               220.4378                39.3438

                      7                      8                      9
                      A                      A                      A
 Frequencies --   1321.9341              1414.8865              1749.5957
 Red. masses --      1.5521                 1.3765                 5.6529
 Frc consts  --      1.5980                 1.6236                10.1953
 IR Inten    --    172.0596                13.1252               221.3091

                     10                     11                     12
                      A                      A                      A
 Frequencies --   3037.2664              3533.0889              3841.9401
 Red. masses --      1.0900                 1.0763                 1.0664
 Frc consts  --      5.9242                 7.9154                 9.2745
 IR Inten    --     53.0039                13.1890                78.0281

 - Thermochemistry -
 -------------------
 Temperature   298.150 Kelvin.  Pressure   1.00000 Atm.
 Atom     1 has atomic number  6 and mass  12.00000

 Molecular mass:    45.02146 amu.
 Principal axes and moments of inertia in atomic units:
                           1         2         3
     Eigenvalues --    22.60826 162.37505 184.98331
           X            1.00000  -0.00142   0.00000
           Y            0.00142   1.00000   0.00000
           Z           -0.00000  -0.00000   1.00000
 This molecule is an asymmetric top.
 Rotational symmetry number  1.
 Rotational temperatures (Kelvin)      3.83107     0.53342     0.46823
 Rotational constants (GHZ):          79.82664    11.11465     9.75624
 Zero-point vibrational energy     119790.1 (Joules/Mol)
                                   28.63051 (Kcal/Mol)
 Warning -- explicit consideration of   2 degrees of freedom as
           vibrations may cause significant error
 Vibrational temperatures:    598.21   891.83  1186.57  1486.87  1508.94
          (Kelvin)           1706.52  1901.97  2035.71  2517.28  4369.95
                             5083.33  5527.69

 Zero-point correction=                           0.045626 (Hartree/Particle)
 Thermal correction to Energy=                    0.049073
 Thermal correction to Enthalpy=                  0.050017
 Thermal correction to Gibbs Free Energy=         0.021393
 Sum of electronic and zero-point Energies=           -169.893623
 Sum of electronic and thermal Energies=              -169.890176
 Sum of electronic and thermal Enthalpies=            -169.889232
 Sum of electronic and thermal Free Energies=         -169.917856

                     E (Thermal)             CV                S
                      KCal/Mol        Cal/Mol-Kelvin    Cal/Mol-Kelvin
 Total                   30.794             10.150             60.244
 Electronic               0.000              0.000              0.000
 Translational            0.889              2.981             37.339
 Rotational               0.889              2.981             21.145
 Vibrational             29.016              4.189              1.759
 Vibration     1          0.779              1.436              0.906
 Vibration     2          0.980              0.990              0.417

 Optimization completed.
    -- Stationary point found.
 Normal termination of Gaussian 16 at Tue Jan 26 00:26:00 2021.
