 Gaussian 16, Revision C.01,
 Gaussian 16:  ES64L-G16RevC.01  3-Jul-2019

 -------------------------------------------
 #p b3lyp/6-311++G(3df,3pd) opt freq=noraman
 -------------------------------------------

 -----
 title
 -----
 Symbolic Z-matrix:
 Charge =  0 Multiplicity = 1

 SCF Done:  E(RB3LYP) =  -56.5874393802     A.U. after    8 cycles
 SCF Done:  E(RB3LYP) =  -56.5875292742     A.U. after    7 cycles
 SCF Done:  E(RB3LYP) =  -56.5875477375     A.U. after    7 cycles
 Optimization completed.
    -- Stationary point found.
 Normal termination of Gaussian 16 at Tue Jan 26 00:25:16 2021.

 ----------------------------------------------------------------------
 #P Geom=AllCheck Guess=TCheck SCRF=Check GenChk RB3LYP/6-311++G(3df,3p
 d) Freq
 ----------------------------------------------------------------------

 Structure from the checkpoint file:  "file_name.chk"
 -----
 title
 -----
 Charge =  0 Multiplicity = 1

                         Standard orientation:
 ---------------------------------------------------------------------
 Center     Atomic      Atomic             Coordinates (Angstroms)
 Number     Number       Type             X           Y           Z
 ---------------------------------------------------------------------
      1          7           0       -0.000000   -0.000000    0.112486
      2          1           0        0.000000    0.941469   -0.262467
      3          1           0        0.815336   -0.470735   -0.262467
      4          1           0       -0.815336   -0.470735   -0.262467
 ---------------------------------------------------------------------

 SCF Done:  E(RB3LYP) =  -56.5875477375     A.U. after    1 cycles

 The electronic state is 1-A1.
 Alpha  occ. eigenvalues --  -14.29565  -0.85732  -0.46770  -0.46770  -0.27473
 Alpha virt. eigenvalues --   -0.01552   0.03335   0.03335   0.10049   0.12820
 Alpha virt. eigenvalues --    0.12820   0.14069   0.19107   0.19107   0.21108
 Alpha virt. eigenvalues --    0.29013   0.29013   0.38593   0.38593   0.42829

 Mulliken charges:
               1
     1  N   -0.966290
     2  H    0.322097
     3  H    0.322097
     4  H    0.322097
 Sum of Mulliken charges =  -0.00000

 Dipole moment (field-independent basis, Debye):
    X=              0.0000    Y=             -0.0000    Z=             -1.5168  Tot=              1.5168
 Quadrupole moment (field-independent basis, Debye-Ang):
   XX=             -6.3737   YY=             -6.3737   ZZ=             -9.5501
   XY=             -0.0000   XZ=              0.0000   YZ=              0.0000

  Exact polarizability:      13.334       0.000      13.334       0.000       0.000      15.097
 Approx polarizability:      16.902       0.000      16.902       0.000       0.000      17.449

                      1                      2                      3
                     A1                      E                      E
 Frequencies --   1028.4024              1661.0803              1661.0803
 Red. masses --      1.1819                 1.0669                 1.0669
 Frc consts  --      0.7365                 1.7345                 1.7345
 IR Inten    --    148.5227                16.0735                16.0738

                      4                      5                      6
                     A1                      E                      E
 Frequencies --   3471.8016              3590.5135              3590.5136
 Red. masses --      1.0258                 1.0899                 1.0899
 Frc consts  --      7.2845                 8.2784                 8.2784
 IR Inten    --      4.0667                 4.2594                 4.2595

 - Thermochemistry -
 -------------------
 Temperature   298.150 Kelvin.  Pressure   1.00000 Atm.
 Atom     1 has atomic number  7 and mass  14.00307

 Molecular mass:    17.02655 amu.
 Principal axes and moments of inertia in atomic units:
                           1         2         3
     Eigenvalues --     6.03345   6.03345   9.57009
           X            0.99855   0.05383   0.00000
           Y           -0.05383   0.99855  -0.00000
           Z           -0.00000   0.00000   1.00000
 This molecule is an oblate symmetric top.
 Rotational symmetry number  3.
 Rotational temperatures (Kelvin)     14.35563    14.35563     9.05048
 Rotational constants (GHZ):         299.12271   299.12271   188.58133
 Zero-point vibrational energy      89740.2 (Joules/Mol)
                                   21.44843 (Kcal/Mol)
 Vibrational temperatures:   1479.64  2389.92  2389.92  4995.15  5165.95
          (Kelvin)           5165.95

 Zero-point correction=                           0.034180 (Hartree/Particle)
 Thermal correction to Energy=                    0.037051
 Thermal correction to Enthalpy=                  0.037995
 Thermal correction to Gibbs Free Energy=         0.016152
 Sum of electronic and zero-point Energies=            -56.553367
 Sum of electronic and thermal Energies=               -56.550497
 Sum of electronic and thermal Enthalpies=             -56.549553
 Sum of electronic and thermal Free Energies=          -56.571395

                     E (Thermal)             CV                S
                      KCal/Mol        Cal/Mol-Kelvin    Cal/Mol-Kelvin
 Total                   23.250              6.393             45.972
 Electronic               0.000              0.000              0.000
 Translational            0.889              2.981             34.441
 Rotational               0.889              2.981             11.436
 Vibrational             21.472              0.432              0.095

 Optimization completed.
    -- Stationary point found.
 Normal termination of Gaussian 16 at Tue Jan 26 00:25:25 2021.
