 Gaussian 16, Revision C.01,
 Gaussian 16:  ES64L-G16RevC.01  3-Jul-2019

 -------------------------------------------
 #p b3lyp/6-311++G(3df,3pd) opt freq=noraman
 -------------------------------------------

 -----
 title
 -----
 Symbolic Z-matrix:
 Charge =  0 Multiplicity = 1

 SCF Done:  E(RB3LYP) =  -168.641580216     A.U. after   11 cycles
 Optimization completed.
    -- Stationary point found.
 Normal termination of Gaussian 16 at Fri Jan 29 00:59:08 2021.

 ----------------------------------------------------------------------
 #P Geom=AllCheck Guess=TCheck SCRF=Check GenChk RB3LYP/6-311++G(3df,3p
 d) Freq
 ----------------------------------------------------------------------

 Structure from the checkpoint file:  "file_name.chk"
 -----
 title
 -----
 Charge =  0 Multiplicity = 1

                         Standard orientation:
 ---------------------------------------------------------------------
 Center     Atomic      Atomic             Coordinates (Angstroms)
 Number     Number       Type             X           Y           Z
 ---------------------------------------------------------------------
      1          6           0        0.000000    0.000000   -1.175285
      2          1           0        0.000000    0.000000   -2.234984
      3          7           0        0.000000    0.000000   -0.020547
      4          8           0        0.000000    0.000000    1.178815
 ---------------------------------------------------------------------

 SCF Done:  E(RB3LYP) =  -168.641580216     A.U. after    1 cycles

 The electronic state is 1-SG.
 Alpha  occ. eigenvalues --  -19.17291 -14.47959 -10.24118  -1.17400  -0.93178
 Alpha  occ. eigenvalues --   -0.60961  -0.54060  -0.50492  -0.50492  -0.28621
 Alpha  occ. eigenvalues --   -0.28621
 Alpha virt. eigenvalues --   -0.01105  -0.01105  -0.00861   0.01938   0.07376
 Alpha virt. eigenvalues --    0.07376   0.07432   0.10639   0.15002   0.15002
 Alpha virt. eigenvalues --    0.15745   0.18599   0.22926   0.25395   0.25395

 Mulliken charges:
               1
     1  C    0.602029
     2  H    0.197072
     3  N   -0.252514
     4  O   -0.546587
 Sum of Mulliken charges =  -0.00000

 Dipole moment (field-independent basis, Debye):
    X=              0.0000    Y=              0.0000    Z=             -3.2285  Tot=              3.2285
 Quadrupole moment (field-independent basis, Debye-Ang):
   XX=            -16.9294   YY=            -16.9294   ZZ=            -14.2177
   XY=              0.0000   XZ=              0.0000   YZ=              0.0000

  Exact polarizability:      16.307       0.000      16.307       0.000       0.000      43.005
 Approx polarizability:      21.238      -0.000      21.238      -0.000      -0.000      93.075

                      1                      2                      3
                     PI                     PI                     PI
 Frequencies --    244.9138               244.9138               565.8837
 Red. masses --      1.3867                 1.3867                 4.7127
 Frc consts  --      0.0490                 0.0490                 0.8892
 IR Inten    --     71.6088                71.6088                 2.3962

                      4                      5                      6
                     PI                     SG                     SG
 Frequencies --    565.8837              1291.9450              2323.4573
 Red. masses --      4.7127                 9.4051                 6.3736
 Frc consts  --      0.8892                 9.2491                20.2724
 IR Inten    --      2.3962               139.9015               425.5998

                      7
                     SG
 Frequencies --   3499.7796
 Red. masses --      1.1720
 Frc consts  --      8.4576
 IR Inten    --    267.3265

 - Thermochemistry -
 -------------------
 Temperature   298.150 Kelvin.  Pressure   1.00000 Atm.
 Atom     1 has atomic number  6 and mass  12.00000

 Molecular mass:    43.00581 amu.
 Principal axes and moments of inertia in atomic units:
                           1         2         3
     Eigenvalues --     0.00000 156.15764 156.15764
           X            0.00000  -0.00000   1.00000
           Y            0.00000   1.00000   0.00000
           Z            1.00000   0.00000   0.00000
 This molecule is a prolate symmetric top.
 Rotational symmetry number  1.
 Rotational temperature (Kelvin)      0.55466
 Rotational constant (GHZ):          11.557175
 Zero-point vibrational energy      52257.5 (Joules/Mol)
                                   12.48985 (Kcal/Mol)
 Warning -- explicit consideration of   4 degrees of freedom as
           vibrations may cause significant error
 Vibrational temperatures:    352.38   352.38   814.18   814.18  1858.82
          (Kelvin)           3342.94  5035.40

 Zero-point correction=                           0.019904 (Hartree/Particle)
 Thermal correction to Energy=                    0.023623
 Thermal correction to Enthalpy=                  0.024567
 Thermal correction to Gibbs Free Energy=        -0.002169
 Sum of electronic and zero-point Energies=           -168.621676
 Sum of electronic and thermal Energies=              -168.617957
 Sum of electronic and thermal Enthalpies=            -168.617013
 Sum of electronic and thermal Free Energies=         -168.643749

                     E (Thermal)             CV                S
                      KCal/Mol        Cal/Mol-Kelvin    Cal/Mol-Kelvin
 Total                   14.824             10.876             56.270
 Electronic               0.000              0.000              0.000
 Translational            0.889              2.981             37.203
 Rotational               0.592              1.987             14.481
 Vibrational             13.342              5.908              4.587
 Vibration     1          0.660              1.771              1.767
 Vibration     2          0.660              1.771              1.767
 Vibration     3          0.922              1.105              0.512
 Vibration     4          0.922              1.105              0.512

 Optimization completed.
    -- Stationary point found.
 Normal termination of Gaussian 16 at Fri Jan 29 00:59:18 2021.
