 Gaussian 16, Revision C.01,
 Gaussian 16:  ES64L-G16RevC.01  3-Jul-2019

 -------------------------------------------
 #p b3lyp/6-311++G(3df,3pd) opt freq=noraman
 -------------------------------------------

 -----
 title
 -----
 Symbolic Z-matrix:
 Charge =  0 Multiplicity = 1

 SCF Done:  E(RB3LYP) =  -113.264420460     A.U. after    9 cycles
 SCF Done:  E(RB3LYP) =  -113.335084353     A.U. after    9 cycles
 SCF Done:  E(RB3LYP) =  -113.356685095     A.U. after    8 cycles
 SCF Done:  E(RB3LYP) =  -113.356792082     A.U. after    7 cycles
 Optimization completed.
    -- Stationary point found.
 Normal termination of Gaussian 16 at Tue Jan 26 00:24:48 2021.

 ----------------------------------------------------------------------
 #P Geom=AllCheck Guess=TCheck SCRF=Check GenChk RB3LYP/6-311++G(3df,3p
 d) Freq
 ----------------------------------------------------------------------

 Structure from the checkpoint file:  "file_name.chk"
 -----
 title
 -----
 Charge =  0 Multiplicity = 1

                         Standard orientation:
 ---------------------------------------------------------------------
 Center     Atomic      Atomic             Coordinates (Angstroms)
 Number     Number       Type             X           Y           Z
 ---------------------------------------------------------------------
      1          8           0        0.000000    0.000000    0.481945
      2          6           0       -0.000000   -0.000000   -0.642594
 ---------------------------------------------------------------------

 SCF Done:  E(RB3LYP) =  -113.356792082     A.U. after    1 cycles

 The electronic state is 1-SG.
 Alpha  occ. eigenvalues --  -19.23701 -10.29320  -1.17537  -0.58515  -0.48663
 Alpha  occ. eigenvalues --   -0.48663  -0.38688
 Alpha virt. eigenvalues --   -0.04022  -0.04022   0.02510   0.05857   0.06946
 Alpha virt. eigenvalues --    0.06946   0.17317   0.20118   0.20118   0.23575
 Alpha virt. eigenvalues --    0.31857   0.31857   0.38512   0.46582   0.46582

 Mulliken charges:
               1
     1  O   -0.214845
     2  C    0.214845
 Sum of Mulliken charges =   0.00000

 Dipole moment (field-independent basis, Debye):
    X=              0.0000    Y=             -0.0000    Z=              0.0951  Tot=              0.0951
 Quadrupole moment (field-independent basis, Debye-Ang):
   XX=            -10.2996   YY=            -10.2996   ZZ=            -12.3967
   XY=             -0.0000   XZ=             -0.0000   YZ=             -0.0000

  Exact polarizability:      11.813      -0.000      11.813      -0.000       0.000      15.462
 Approx polarizability:      15.757      -0.000      15.757      -0.000       0.000      24.661

                      1
                     SG
 Frequencies --   2216.4833
 Red. masses --     13.4388
 Frc consts  --     38.8990
 IR Inten    --     79.7680

 - Thermochemistry -
 -------------------
 Temperature   298.150 Kelvin.  Pressure   1.00000 Atm.
 Atom     1 has atomic number  8 and mass  15.99491

 Molecular mass:    27.99491 amu.
 Principal axes and moments of inertia in atomic units:
                           1         2         3
     Eigenvalues --    -0.00000  30.96215  30.96215
           X           -0.00000  -0.25937   0.96578
           Y            0.00000   0.96578   0.25937
           Z            1.00000  -0.00000   0.00000
 This molecule is a prolate symmetric top.
 Rotational symmetry number  1.
 Rotational temperature (Kelvin)      2.79741
 Rotational constant (GHZ):          58.288632
 Zero-point vibrational energy      13257.5 (Joules/Mol)
                                    3.16862 (Kcal/Mol)
 Vibrational temperatures:   3189.03
          (Kelvin)

 Zero-point correction=                           0.005050 (Hartree/Particle)
 Thermal correction to Energy=                    0.007410
 Thermal correction to Enthalpy=                  0.008354
 Thermal correction to Gibbs Free Energy=        -0.014067
 Sum of electronic and zero-point Energies=           -113.351743
 Sum of electronic and thermal Energies=              -113.349382
 Sum of electronic and thermal Enthalpies=            -113.348438
 Sum of electronic and thermal Free Energies=         -113.370859

                     E (Thermal)             CV                S
                      KCal/Mol        Cal/Mol-Kelvin    Cal/Mol-Kelvin
 Total                    4.650              4.973             47.189
 Electronic               0.000              0.000              0.000
 Translational            0.889              2.981             35.923
 Rotational               0.592              1.987             11.265
 Vibrational              3.169              0.005              0.001

 Optimization completed.
    -- Stationary point found.
 Normal termination of Gaussian 16 at Tue Jan 26 00:25:02 2021.
