 Gaussian 16, Revision C.01,
 Gaussian 16:  ES64L-G16RevC.01  3-Jul-2019

 -------------------------------------------
 #p b3lyp/6-311++G(3df,3pd) opt freq=noraman
 -------------------------------------------

 -----
 title
 -----
 Symbolic Z-matrix:
 Charge =  0 Multiplicity = 1

 SCF Done:  E(RB3LYP) =  -169.966676788     A.U. after   11 cycles
 SCF Done:  E(RB3LYP) =  -169.967044592     A.U. after    9 cycles
 SCF Done:  E(RB3LYP) =  -169.967070440     A.U. after    8 cycles
 SCF Done:  E(RB3LYP) =  -169.967072244     A.U. after    7 cycles
 Optimization completed.
    -- Stationary point found.
 Normal termination of Gaussian 16 at Tue Jan 26 00:25:51 2021.

 ----------------------------------------------------------------------
 #P Geom=AllCheck Guess=TCheck SCRF=Check GenChk RB3LYP/6-311++G(3df,3p
 d) Freq
 ----------------------------------------------------------------------

 Structure from the checkpoint file:  "file_name.chk"
 -----
 title
 -----
 Charge =  0 Multiplicity = 1

                         Standard orientation:
 ---------------------------------------------------------------------
 Center     Atomic      Atomic             Coordinates (Angstroms)
 Number     Number       Type             X           Y           Z
 ---------------------------------------------------------------------
      1          6           0       -0.162032    0.385923    0.000012
      2          8           0       -1.192839   -0.245812   -0.000004
      3          1           0       -0.139875    1.489818   -0.000021
      4          7           0        1.081134   -0.157210   -0.000001
      5          1           0        1.902616    0.420445   -0.000011
      6          1           0        1.184224   -1.158839    0.000002
 ---------------------------------------------------------------------

 SCF Done:  E(RB3LYP) =  -169.967072244     A.U. after    1 cycles

 The electronic state is 1-A.
 Alpha  occ. eigenvalues --  -19.10343 -14.35274 -10.28114  -1.05051  -0.92436
 Alpha  occ. eigenvalues --   -0.63970  -0.57061  -0.49483  -0.42881  -0.42052
 Alpha  occ. eigenvalues --   -0.29266  -0.27397
 Alpha virt. eigenvalues --   -0.01930   0.00117   0.00541   0.02918   0.05931
 Alpha virt. eigenvalues --    0.06560   0.07680   0.10212   0.12196   0.12814
 Alpha virt. eigenvalues --    0.13566   0.15396   0.17977   0.18744   0.22581

 Mulliken charges:
               1
     1  C    0.895814
     2  O   -0.672034
     3  H   -0.008666
     4  N   -0.737997
     5  H    0.261225
     6  H    0.261657
 Sum of Mulliken charges =  -0.00000

 Dipole moment (field-independent basis, Debye):
    X=              3.8555    Y=              0.8984    Z=             -0.0000  Tot=              3.9587
 Quadrupole moment (field-independent basis, Debye-Ang):
   XX=            -18.3064   YY=            -15.5929   ZZ=            -19.0990
   XY=             -1.3102   XZ=             -0.0000   YZ=             -0.0000

  Exact polarizability:      35.510       0.945      27.696       0.000      -0.000      19.744
 Approx polarizability:      52.511       3.898      37.200       0.000       0.000      26.175

                      1                      2                      3
                      A                      A                      A
 Frequencies --    233.6820               569.6261               638.1524
 Red. masses --      1.2247                 2.4556                 1.2032
 Frc consts  --      0.0394                 0.4694                 0.2887
 IR Inten    --    201.6871                10.9259                14.8211

                      4                      5                      6
                      A                      A                      A
 Frequencies --   1041.4808              1054.8557              1266.1502
 Red. masses --      1.5521                 1.7752                 2.8361
 Frc consts  --      0.9919                 1.1638                 2.6788
 IR Inten    --      2.4138                 5.0336               111.0024

                      7                      8                      9
                      A                      A                      A
 Frequencies --   1419.4137              1617.7204              1792.8517
 Red. masses --      1.2028                 1.2279                 7.4708
 Frc consts  --      1.4278                 1.8933                14.1484
 IR Inten    --      5.8492                61.3067               431.3211

                     10                     11                     12
                      A                      A                      A
 Frequencies --   2946.2738              3577.7117              3715.5628
 Red. masses --      1.0848                 1.0452                 1.1049
 Frc consts  --      5.5484                 7.8825                 8.9869
 IR Inten    --     92.9286                33.6992                41.9642

 - Thermochemistry -
 -------------------
 Temperature   298.150 Kelvin.  Pressure   1.00000 Atm.
 Atom     1 has atomic number  6 and mass  12.00000

 Molecular mass:    45.02146 amu.
 Principal axes and moments of inertia in atomic units:
                           1         2         3
     Eigenvalues --    24.43310 158.36896 182.80207
           X            0.99981  -0.01932  -0.00000
           Y            0.01932   0.99981  -0.00001
           Z            0.00000   0.00001   1.00000
 This molecule is an asymmetric top.
 Rotational symmetry number  1.
 Rotational temperatures (Kelvin)      3.54494     0.54691     0.47381
 Rotational constants (GHZ):          73.86459    11.39580     9.87265
 Zero-point vibrational energy     118869.8 (Joules/Mol)
                                   28.41057 (Kcal/Mol)
 Warning -- explicit consideration of   2 degrees of freedom as
           vibrations may cause significant error
 Vibrational temperatures:    336.22   819.56   918.16  1498.46  1517.70
          (Kelvin)           1821.71  2042.22  2327.54  2579.51  4239.03
                             5147.53  5345.87

 Zero-point correction=                           0.045275 (Hartree/Particle)
 Thermal correction to Energy=                    0.049020
 Thermal correction to Enthalpy=                  0.049965
 Thermal correction to Gibbs Free Energy=         0.020753
 Sum of electronic and zero-point Energies=           -169.921797
 Sum of electronic and thermal Energies=              -169.918052
 Sum of electronic and thermal Enthalpies=            -169.917108
 Sum of electronic and thermal Free Energies=         -169.946320

                     E (Thermal)             CV                S
                      KCal/Mol        Cal/Mol-Kelvin    Cal/Mol-Kelvin
 Total                   30.761             10.795             61.482
 Electronic               0.000              0.000              0.000
 Translational            0.889              2.981             37.339
 Rotational               0.889              2.981             21.186
 Vibrational             28.983              4.833              2.956
 Vibration     1          0.654              1.789              1.850
 Vibration     2          0.926              1.097              0.505

 Optimization completed.
    -- Stationary point found.
 Normal termination of Gaussian 16 at Tue Jan 26 00:26:26 2021.
