 Gaussian 16, Revision C.01,
 Gaussian 16:  ES64L-G16RevC.01  3-Jul-2019

 -------------------------------------------
 #p b3lyp/6-311++G(3df,3pd) opt freq=noraman
 -------------------------------------------

 -----
 title
 -----
 Symbolic Z-matrix:
 Charge =  0 Multiplicity = 1

 SCF Done:  E(RB3LYP) =  -169.928940520     A.U. after   11 cycles
 SCF Done:  E(RB3LYP) =  -169.941310119     A.U. after    9 cycles
 SCF Done:  E(RB3LYP) =  -169.941725092     A.U. after    9 cycles
 SCF Done:  E(RB3LYP) =  -169.941751445     A.U. after    8 cycles
 SCF Done:  E(RB3LYP) =  -169.941754851     A.U. after    7 cycles
 Optimization completed.
    -- Stationary point found.
 Normal termination of Gaussian 16 at Tue Jan 26 00:25:30 2021.

 ----------------------------------------------------------------------
 #P Geom=AllCheck Guess=TCheck SCRF=Check GenChk RB3LYP/6-311++G(3df,3p
 d) Freq
 ----------------------------------------------------------------------

 Structure from the checkpoint file:  "file_name.chk"
 -----
 title
 -----
 Charge =  0 Multiplicity = 1

                         Standard orientation:
 ---------------------------------------------------------------------
 Center     Atomic      Atomic             Coordinates (Angstroms)
 Number     Number       Type             X           Y           Z
 ---------------------------------------------------------------------
      1          6           0        0.000000    0.439797   -0.000000
      2          7           0        1.219555    0.128114    0.000000
      3          8           0       -1.097614   -0.356542   -0.000000
      4          1           0       -0.306319    1.481454   -0.000000
      5          1           0        1.383636   -0.879273    0.000000
      6          1           0       -0.833290   -1.285427   -0.000000
 ---------------------------------------------------------------------

 SCF Done:  E(RB3LYP) =  -169.941754851     A.U. after    1 cycles

 The electronic state is 1-A'.
 Alpha  occ. eigenvalues --  -19.18287 -14.30519 -10.27801  -1.09521  -0.90444
 Alpha  occ. eigenvalues --   -0.66939  -0.55608  -0.48435  -0.43289  -0.41635
 Alpha  occ. eigenvalues --   -0.30101  -0.29564
 Alpha virt. eigenvalues --   -0.02249  -0.00284   0.01398   0.02373   0.05953
 Alpha virt. eigenvalues --    0.07338   0.07782   0.09085   0.13349   0.13830
 Alpha virt. eigenvalues --    0.15759   0.15797   0.19156   0.19653   0.20210

 Mulliken charges:
               1
     1  C    0.894085
     2  N   -0.887507
     3  O   -0.677629
     4  H   -0.012395
     5  H    0.250840
     6  H    0.432606
 Sum of Mulliken charges =   0.00000

 Dipole moment (field-independent basis, Debye):
    X=             -0.9848    Y=             -1.7518    Z=             -0.0000  Tot=              2.0096
 Quadrupole moment (field-independent basis, Debye-Ang):
   XX=            -23.2924   YY=            -13.4090   ZZ=            -19.1621
   XY=             -2.0320   XZ=             -0.0000   YZ=             -0.0000

  Exact polarizability:      34.776       0.026      28.343       0.000      -0.000      19.843
 Approx polarizability:      52.107      -1.605      38.726       0.000      -0.000      26.662

                      1                      2                      3
                     A"                     A'                     A"
 Frequencies --    513.8615               590.8653               849.5584
 Red. masses --      1.1516                 2.5634                 1.8975
 Frc consts  --      0.1792                 0.5273                 0.8069
 IR Inten    --     69.5242                29.7215                52.8444

                      4                      5                      6
                     A"                     A'                     A'
 Frequencies --   1065.4604              1072.7050              1119.3018
 Red. masses --      1.1428                 3.2088                 1.2700
 Frc consts  --      0.7644                 2.1755                 0.9375
 IR Inten    --     61.2459                51.1974               265.8553

                      7                      8                      9
                     A'                     A'                     A'
 Frequencies --   1338.9347              1408.7658              1720.0691
 Red. masses --      1.6602                 1.1136                 6.7944
 Frc consts  --      1.7536                 1.3022                11.8438
 IR Inten    --     34.5479                 1.1378               288.1221

                     10                     11                     12
                     A'                     A'                     A'
 Frequencies --   3161.4875              3450.2932              3773.5557
 Red. masses --      1.0919                 1.0745                 1.0649
 Frc consts  --      6.4298                 7.5367                 8.9345
 IR Inten    --      9.3847                 8.8836                37.6295

 - Thermochemistry -
 -------------------
 Temperature   298.150 Kelvin.  Pressure   1.00000 Atm.
 Atom     1 has atomic number  6 and mass  12.00000

 Molecular mass:    45.02146 amu.
 Principal axes and moments of inertia in atomic units:
                           1         2         3
     Eigenvalues --    26.73828 159.13494 185.87322
           X            0.97621  -0.21681   0.00000
           Y            0.21681   0.97621   0.00000
           Z            0.00000  -0.00000   1.00000
 This molecule is an asymmetric top.
 Rotational symmetry number  1.
 Rotational temperatures (Kelvin)      3.23932     0.54428     0.46598
 Rotational constants (GHZ):          67.49653    11.34095     9.70953
 Zero-point vibrational energy     120014.5 (Joules/Mol)
                                   28.68416 (Kcal/Mol)
 Warning -- explicit consideration of   2 degrees of freedom as
           vibrations may cause significant error
 Vibrational temperatures:    739.33   850.12  1222.33  1532.96  1543.38
          (Kelvin)           1610.43  1926.43  2026.90  2474.80  4548.68
                             4964.20  5429.30

 Zero-point correction=                           0.045711 (Hartree/Particle)
 Thermal correction to Energy=                    0.049086
 Thermal correction to Enthalpy=                  0.050030
 Thermal correction to Gibbs Free Energy=         0.021455
 Sum of electronic and zero-point Energies=           -169.896044
 Sum of electronic and thermal Energies=              -169.892669
 Sum of electronic and thermal Enthalpies=            -169.891725
 Sum of electronic and thermal Free Energies=         -169.920299

                     E (Thermal)             CV                S
                      KCal/Mol        Cal/Mol-Kelvin    Cal/Mol-Kelvin
 Total                   30.802              9.950             60.141
 Electronic               0.000              0.000              0.000
 Translational            0.889              2.981             37.339
 Rotational               0.889              2.981             21.297
 Vibrational             29.025              3.989              1.505
 Vibration     1          0.869              1.219              0.624
 Vibration     2          0.948              1.051              0.466

 Optimization completed.
    -- Stationary point found.
 Normal termination of Gaussian 16 at Tue Jan 26 00:25:49 2021.
