 Gaussian 16, Revision C.01,
 Gaussian 16:  ES64L-G16RevC.01  3-Jul-2019

 -------------------------------------------
 #p b3lyp/6-311++G(3df,3pd) opt freq=noraman
 -------------------------------------------

 -----
 title
 -----
 Symbolic Z-matrix:
 Charge =  0 Multiplicity = 1

 SCF Done:  E(RB3LYP) =  -169.935463718     A.U. after   11 cycles
 SCF Done:  E(RB3LYP) =  -169.946951825     A.U. after   10 cycles
 SCF Done:  E(RB3LYP) =  -169.947383555     A.U. after    9 cycles
 SCF Done:  E(RB3LYP) =  -169.947410406     A.U. after    8 cycles
 SCF Done:  E(RB3LYP) =  -169.947412150     A.U. after    7 cycles
 Optimization completed.
    -- Stationary point found.
 Normal termination of Gaussian 16 at Tue Jan 26 00:25:36 2021.

 ----------------------------------------------------------------------
 #P Geom=AllCheck Guess=TCheck SCRF=Check GenChk RB3LYP/6-311++G(3df,3p
 d) Freq
 ----------------------------------------------------------------------

 Structure from the checkpoint file:  "file_name.chk"
 -----
 title
 -----
 Charge =  0 Multiplicity = 1

                         Standard orientation:
 ---------------------------------------------------------------------
 Center     Atomic      Atomic             Coordinates (Angstroms)
 Number     Number       Type             X           Y           Z
 ---------------------------------------------------------------------
      1          6           0        0.092775    0.405437   -0.000002
      2          7           0        1.107616   -0.341578   -0.000000
      3          8           0       -1.158051   -0.084794    0.000001
      4          1           0        0.074141    1.494427    0.000002
      5          1           0       -1.089385   -1.051173   -0.000000
      6          1           0        1.969686    0.193523    0.000003
 ---------------------------------------------------------------------

 SCF Done:  E(RB3LYP) =  -169.947412150     A.U. after    1 cycles

 The electronic state is 1-A.
 Alpha  occ. eigenvalues --  -19.17484 -14.30303 -10.27750  -1.09344  -0.90305
 Alpha  occ. eigenvalues --   -0.65817  -0.54723  -0.50001  -0.43107  -0.40890
 Alpha  occ. eigenvalues --   -0.29795  -0.29616
 Alpha virt. eigenvalues --   -0.00761  -0.00352   0.00469   0.02529   0.05808
 Alpha virt. eigenvalues --    0.07544   0.07846   0.10059   0.11922   0.13634
 Alpha virt. eigenvalues --    0.15807   0.16059   0.19885   0.20168   0.21012

 Mulliken charges:
               1
     1  C    0.885080
     2  N   -0.921827
     3  O   -0.693169
     4  H    0.005497
     5  H    0.454825
     6  H    0.269593
 Sum of Mulliken charges =  -0.00000

 Dipole moment (field-independent basis, Debye):
    X=              0.2041    Y=              0.9943    Z=              0.0000  Tot=              1.0150
 Quadrupole moment (field-independent basis, Debye-Ang):
   XX=            -18.2583   YY=            -16.2146   ZZ=            -19.2059
   XY=              4.1291   XZ=              0.0000   YZ=              0.0000

  Exact polarizability:      35.107      -1.348      28.214       0.000       0.000      19.876
 Approx polarizability:      51.263      -4.688      39.096       0.000      -0.000      26.399

                      1                      2                      3
                      A                      A                      A
 Frequencies --    591.2943               623.0299               825.8843
 Red. masses --      2.8552                 1.1921                 1.3247
 Frc consts  --      0.5882                 0.2726                 0.5324
 IR Inten    --     46.7651               167.3501                32.3107

                      4                      5                      6
                      A                      A                      A
 Frequencies --   1046.1665              1062.5987              1188.0800
 Red. masses --      1.3285                 1.8290                 1.4043
 Frc consts  --      0.8567                 1.2168                 1.1679
 IR Inten    --      0.5463               187.2867               100.4153

                      7                      8                      9
                      A                      A                      A
 Frequencies --   1365.7763              1394.4600              1718.5402
 Red. masses --      1.5495                 1.4615                 5.7344
 Frc consts  --      1.7030                 1.6744                 9.9784
 IR Inten    --      3.0641                20.8218               290.9320

                     10                     11                     12
                      A                      A                      A
 Frequencies --   3111.2559              3532.3002              3734.7259
 Red. masses --      1.0919                 1.0763                 1.0637
 Frc consts  --      6.2274                 7.9125                 8.7413
 IR Inten    --     26.5566                10.8660                50.6662

 - Thermochemistry -
 -------------------
 Temperature   298.150 Kelvin.  Pressure   1.00000 Atm.
 Atom     1 has atomic number  6 and mass  12.00000

 Molecular mass:    45.02146 amu.
 Principal axes and moments of inertia in atomic units:
                           1         2         3
     Eigenvalues --    25.14596 156.76275 181.90871
           X            0.99901   0.04452   0.00000
           Y           -0.04452   0.99901   0.00000
           Z           -0.00000  -0.00000   1.00000
 This molecule is an asymmetric top.
 Rotational symmetry number  1.
 Rotational temperatures (Kelvin)      3.44445     0.55252     0.47614
 Rotational constants (GHZ):          71.77062    11.51256     9.92114
 Zero-point vibrational energy     120787.6 (Joules/Mol)
                                   28.86893 (Kcal/Mol)
 Warning -- explicit consideration of   1 degrees of freedom as
           vibrations may cause significant error
 Vibrational temperatures:    850.74   896.40  1188.26  1505.20  1528.84
          (Kelvin)           1709.38  1965.05  2006.32  2472.60  4476.40
                             5082.19  5373.44

 Zero-point correction=                           0.046006 (Hartree/Particle)
 Thermal correction to Energy=                    0.049317
 Thermal correction to Enthalpy=                  0.050261
 Thermal correction to Gibbs Free Energy=         0.021830
 Sum of electronic and zero-point Energies=           -169.901407
 Sum of electronic and thermal Energies=              -169.898095
 Sum of electronic and thermal Enthalpies=            -169.897151
 Sum of electronic and thermal Free Energies=         -169.925583

                     E (Thermal)             CV                S
                      KCal/Mol        Cal/Mol-Kelvin    Cal/Mol-Kelvin
 Total                   30.947              9.721             59.840
 Electronic               0.000              0.000              0.000
 Translational            0.889              2.981             37.339
 Rotational               0.889              2.981             21.200
 Vibrational             29.170              3.759              1.301
 Vibration     1          0.949              1.050              0.465

 Optimization completed.
    -- Stationary point found.
 Normal termination of Gaussian 16 at Tue Jan 26 00:25:58 2021.
