 Gaussian 16, Revision C.01,
 Gaussian 16:  ES64L-G16RevC.01  3-Jul-2019

 -------------------------------------------
 #p b3lyp/6-311++G(3df,3pd) opt freq=noraman
 -------------------------------------------

 -----
 title
 -----
 Symbolic Z-matrix:
 Charge =  0 Multiplicity = 1

 SCF Done:  E(RB3LYP) =  -169.934210543     A.U. after   11 cycles
 SCF Done:  E(RB3LYP) =  -169.941142338     A.U. after   10 cycles
 SCF Done:  E(RB3LYP) =  -169.941423060     A.U. after    8 cycles
 SCF Done:  E(RB3LYP) =  -169.941445425     A.U. after    8 cycles
 SCF Done:  E(RB3LYP) =  -169.941448166     A.U. after    7 cycles
 Optimization completed.
    -- Stationary point found.
 Normal termination of Gaussian 16 at Tue Jan 26 00:25:37 2021.

 ----------------------------------------------------------------------
 #P Geom=AllCheck Guess=TCheck SCRF=Check GenChk RB3LYP/6-311++G(3df,3p
 d) Freq
 ----------------------------------------------------------------------

 Structure from the checkpoint file:  "file_name.chk"
 -----
 title
 -----
 Charge =  0 Multiplicity = 1

                         Standard orientation:
 ---------------------------------------------------------------------
 Center     Atomic      Atomic             Coordinates (Angstroms)
 Number     Number       Type             X           Y           Z
 ---------------------------------------------------------------------
      1          6           0        0.000000    0.418884   -0.000000
      2          7           0       -1.230030    0.174482    0.000000
      3          8           0        0.977185   -0.529560    0.000000
      4          1           0        0.361948    1.446102   -0.000000
      5          1           0       -1.415519   -0.828942    0.000000
      6          1           0        1.846297   -0.115356   -0.000000
 ---------------------------------------------------------------------

 SCF Done:  E(RB3LYP) =  -169.941448166     A.U. after    1 cycles

 The electronic state is 1-A'.
 Alpha  occ. eigenvalues --  -19.18086 -14.29832 -10.27512  -1.09177  -0.90403
 Alpha  occ. eigenvalues --   -0.63582  -0.58641  -0.49169  -0.43013  -0.39357
 Alpha  occ. eigenvalues --   -0.29683  -0.29551
 Alpha virt. eigenvalues --   -0.02418  -0.00216   0.01554   0.02225   0.05772
 Alpha virt. eigenvalues --    0.07202   0.08136   0.09207   0.13210   0.14406
 Alpha virt. eigenvalues --    0.14583   0.15794   0.18566   0.19862   0.20034

 Mulliken charges:
               1
     1  C    0.882912
     2  N   -0.914873
     3  O   -0.714072
     4  H    0.016895
     5  H    0.276954
     6  H    0.452184
 Sum of Mulliken charges =  -0.00000

 Dipole moment (field-independent basis, Debye):
    X=              2.8162    Y=              0.2916    Z=             -0.0000  Tot=              2.8313
 Quadrupole moment (field-independent basis, Debye-Ang):
   XX=            -17.0776   YY=            -17.7230   ZZ=            -19.1690
   XY=              4.2502   XZ=              0.0000   YZ=              0.0000

  Exact polarizability:      37.839       0.378      26.299      -0.000      -0.000      19.909
 Approx polarizability:      56.010       1.684      35.279      -0.000      -0.000      26.712

                      1                      2                      3
                     A"                     A'                     A"
 Frequencies --    413.0514               575.1246               871.6486
 Red. masses --      1.0923                 2.8755                 1.9522
 Frc consts  --      0.1098                 0.5604                 0.8739
 IR Inten    --    128.5964                36.8086                26.0547

                      4                      5                      6
                     A"                     A'                     A'
 Frequencies --   1058.3815              1060.2227              1167.1624
 Red. masses --      1.1109                 3.7300                 1.1126
 Frc consts  --      0.7332                 2.4703                 0.8930
 IR Inten    --     55.2864                42.9937                26.7313

                      7                      8                      9
                     A'                     A'                     A'
 Frequencies --   1296.5978              1416.7656              1753.4141
 Red. masses --      1.6958                 1.1616                 6.5527
 Frc consts  --      1.6797                 1.3737                11.8698
 IR Inten    --    323.4237                11.3197               206.9220

                     10                     11                     12
                     A'                     A'                     A'
 Frequencies --   3112.2787              3464.5093              3815.0808
 Red. masses --      1.0919                 1.0735                 1.0664
 Frc consts  --      6.2316                 7.5913                 9.1448
 IR Inten    --     24.3077                 8.1877                57.8128

 - Thermochemistry -
 -------------------
 Temperature   298.150 Kelvin.  Pressure   1.00000 Atm.
 Atom     1 has atomic number  6 and mass  12.00000

 Molecular mass:    45.02146 amu.
 Principal axes and moments of inertia in atomic units:
                           1         2         3
     Eigenvalues --    25.28372 159.90453 185.18825
           X            0.96290   0.26986   0.00000
           Y           -0.26986   0.96290   0.00000
           Z           -0.00000   0.00000   1.00000
 This molecule is an asymmetric top.
 Rotational symmetry number  1.
 Rotational temperatures (Kelvin)      3.42568     0.54166     0.46771
 Rotational constants (GHZ):          71.37957    11.28637     9.74544
 Zero-point vibrational energy     119651.9 (Joules/Mol)
                                   28.59749 (Kcal/Mol)
 Warning -- explicit consideration of   2 degrees of freedom as
           vibrations may cause significant error
 Vibrational temperatures:    594.29   827.48  1254.11  1522.77  1525.42
          (Kelvin)           1679.29  1865.52  2038.41  2522.77  4477.87
                             4984.66  5489.05

 Zero-point correction=                           0.045573 (Hartree/Particle)
 Thermal correction to Energy=                    0.049034
 Thermal correction to Enthalpy=                  0.049978
 Thermal correction to Gibbs Free Energy=         0.021285
 Sum of electronic and zero-point Energies=           -169.895875
 Sum of electronic and thermal Energies=              -169.892414
 Sum of electronic and thermal Enthalpies=            -169.891470
 Sum of electronic and thermal Free Energies=         -169.920164

                     E (Thermal)             CV                S
                      KCal/Mol        Cal/Mol-Kelvin    Cal/Mol-Kelvin
 Total                   30.769             10.169             60.391
 Electronic               0.000              0.000              0.000
 Translational            0.889              2.981             37.339
 Rotational               0.889              2.981             21.242
 Vibrational             28.992              4.207              1.810
 Vibration     1          0.777              1.442              0.916
 Vibration     2          0.931              1.085              0.494

 Optimization completed.
    -- Stationary point found.
 Normal termination of Gaussian 16 at Tue Jan 26 00:25:55 2021.
